Title: * D:\Users\Dan\Documents\GitHub\ThesisWork\LTSpice\CSK_TS_MC_02.asc
Date: Fri Dec 09 09:43:13 2016
Plotname: Operating Point
Flags: real
No. Variables: 196
No. Points:            1
Offset:   0.0000000000000000e+000
Command: Linear Technology Corporation LTspice IV -- Alternate Solver
Backannotation: 1 1 2 3 4
Backannotation: 2 1 2 3 4
Backannotation: i21 1 4 8 2
Backannotation: i24 1 4 8 2
Backannotation: i23 1 4 8 2
Backannotation: i22 1 4 8 2
Backannotation: i20 1 2 3 4 8 5
Backannotation: i18 1 2 3 4 8 5
Backannotation: i19 1 2 3 4 8 5
Backannotation: i17 1 2 4 8 3
Backannotation: i16 1 2 4 8 3
Backannotation: i15 1 2 4 8 3
Backannotation: i14 1 2 4 8 3
Backannotation: i13 1 2 4 8 3
Backannotation: i53 1 2 11 12 25
Backannotation: i54b 1 2 11 12 25
Backannotation: i91 1 2 3
Backannotation: i90 1 2 3
Backannotation: i89 1 2 3
Backannotation: i21:sn 1 2 3
Backannotation: i21:sp 1 2 3
Backannotation: i24:sn 1 2 3
Backannotation: i24:sp 1 2 3
Backannotation: i23:sn 1 2 3
Backannotation: i23:sp 1 2 3
Backannotation: i22:sn 1 2 3
Backannotation: i22:sp 1 2 3
Backannotation: i20:i6 1 2 3
Backannotation: i20:i5 1 2 3
Backannotation: i20:i4 1 2 3
Backannotation: i20:i3 1 2 3
Backannotation: i20:i2 1 2 3
Backannotation: i20:i1 1 2 3
Backannotation: i18:i6 1 2 3
Backannotation: i18:i5 1 2 3
Backannotation: i18:i4 1 2 3
Backannotation: i18:i3 1 2 3
Backannotation: i18:i2 1 2 3
Backannotation: i18:i1 1 2 3
Backannotation: i19:i6 1 2 3
Backannotation: i19:i5 1 2 3
Backannotation: i19:i4 1 2 3
Backannotation: i19:i3 1 2 3
Backannotation: i19:i2 1 2 3
Backannotation: i19:i1 1 2 3
Backannotation: i17:i4 1 2 3
Backannotation: i17:i3 1 2 3
Backannotation: i17:i2 1 2 3
Backannotation: i17:i1 1 2 3
Backannotation: i16:i4 1 2 3
Backannotation: i16:i3 1 2 3
Backannotation: i16:i2 1 2 3
Backannotation: i16:i1 1 2 3
Backannotation: i15:i4 1 2 3
Backannotation: i15:i3 1 2 3
Backannotation: i15:i2 1 2 3
Backannotation: i15:i1 1 2 3
Backannotation: i14:i4 1 2 3
Backannotation: i14:i3 1 2 3
Backannotation: i14:i2 1 2 3
Backannotation: i14:i1 1 2 3
Backannotation: i13:i4 1 2 3
Backannotation: i13:i3 1 2 3
Backannotation: i13:i2 1 2 3
Backannotation: i13:i1 1 2 3
Backannotation: i24 1 4 8 2
Backannotation: i23 1 4 8 2
Backannotation: i21 1 4 8 2
Backannotation: i22 1 4 8 2
Backannotation: i20 1 2 3 4 8 5
Backannotation: i52 1 2 4 8 3
Backannotation: i63 1 2 4 8 3
Backannotation: i64 1 2 11 12 25
Backannotation: i67 1 2 3
Backannotation: i66 1 2 3
Backannotation: i65 1 2 3
Backannotation: i24:sn 1 2 3
Backannotation: i24:sp 1 2 3
Backannotation: i23:sn 1 2 3
Backannotation: i23:sp 1 2 3
Backannotation: i21:sn 1 2 3
Backannotation: i21:sp 1 2 3
Backannotation: i22:sn 1 2 3
Backannotation: i22:sp 1 2 3
Backannotation: i20:i6 1 2 3
Backannotation: i20:i5 1 2 3
Backannotation: i20:i4 1 2 3
Backannotation: i20:i3 1 2 3
Backannotation: i20:i2 1 2 3
Backannotation: i20:i1 1 2 3
Backannotation: i52:i4 1 2 3
Backannotation: i52:i3 1 2 3
Backannotation: i52:i2 1 2 3
Backannotation: i52:i1 1 2 3
Backannotation: i63:i4 1 2 3
Backannotation: i63:i3 1 2 3
Backannotation: i63:i2 1 2 3
Backannotation: i63:i1 1 2 3
Backannotation: i21 1 4 8 2
Backannotation: i24 1 4 8 2
Backannotation: i23 1 4 8 2
Backannotation: i22 1 4 8 2
Backannotation: i18 1 2 3 4 8 5
Backannotation: i19 1 2 3 4 8 5
Backannotation: i20 1 2 3 4 8 5
Backannotation: i17 1 2 4 8 3
Backannotation: i16 1 2 4 8 3
Backannotation: i15 1 2 4 8 3
Backannotation: i14 1 2 4 8 3
Backannotation: i13 1 2 4 8 3
Backannotation: i64 1 2 11 12 25
Backannotation: i67 1 2 3
Backannotation: i66 1 2 3
Backannotation: i65 1 2 3
Backannotation: i21:sn 1 2 3
Backannotation: i21:sp 1 2 3
Backannotation: i24:sn 1 2 3
Backannotation: i24:sp 1 2 3
Backannotation: i23:sn 1 2 3
Backannotation: i23:sp 1 2 3
Backannotation: i22:sn 1 2 3
Backannotation: i22:sp 1 2 3
Backannotation: i18:i6 1 2 3
Backannotation: i18:i5 1 2 3
Backannotation: i18:i4 1 2 3
Backannotation: i18:i3 1 2 3
Backannotation: i18:i2 1 2 3
Backannotation: i18:i1 1 2 3
Backannotation: i19:i6 1 2 3
Backannotation: i19:i5 1 2 3
Backannotation: i19:i4 1 2 3
Backannotation: i19:i3 1 2 3
Backannotation: i19:i2 1 2 3
Backannotation: i19:i1 1 2 3
Backannotation: i20:i6 1 2 3
Backannotation: i20:i5 1 2 3
Backannotation: i20:i4 1 2 3
Backannotation: i20:i3 1 2 3
Backannotation: i20:i2 1 2 3
Backannotation: i20:i1 1 2 3
Backannotation: i17:i4 1 2 3
Backannotation: i17:i3 1 2 3
Backannotation: i17:i2 1 2 3
Backannotation: i17:i1 1 2 3
Backannotation: i16:i4 1 2 3
Backannotation: i16:i3 1 2 3
Backannotation: i16:i2 1 2 3
Backannotation: i16:i1 1 2 3
Backannotation: i15:i4 1 2 3
Backannotation: i15:i3 1 2 3
Backannotation: i15:i2 1 2 3
Backannotation: i15:i1 1 2 3
Backannotation: i14:i4 1 2 3
Backannotation: i14:i3 1 2 3
Backannotation: i14:i2 1 2 3
Backannotation: i14:i1 1 2 3
Backannotation: i13:i4 1 2 3
Backannotation: i13:i3 1 2 3
Backannotation: i13:i2 1 2 3
Backannotation: i13:i1 1 2 3
Backannotation: i21 1 4 8 2
Backannotation: i22 1 4 8 2
Backannotation: i23 1 4 8 2
Backannotation: i24 1 4 8 2
Backannotation: i18 1 2 3 4 8 5
Backannotation: i19 1 2 3 4 8 5
Backannotation: i20 1 2 3 4 8 5
Backannotation: i17 1 2 4 8 3
Backannotation: i16 1 2 4 8 3
Backannotation: i15 1 2 4 8 3
Backannotation: i14 1 2 4 8 3
Backannotation: i13 1 2 4 8 3
Backannotation: i53 1 2 11 12 25
Backannotation: i76 1 2 3
Backannotation: i75 1 2 3
Backannotation: i74 1 2 3
Backannotation: i21:sn 1 2 3
Backannotation: i21:sp 1 2 3
Backannotation: i22:sn 1 2 3
Backannotation: i22:sp 1 2 3
Backannotation: i23:sn 1 2 3
Backannotation: i23:sp 1 2 3
Backannotation: i24:sn 1 2 3
Backannotation: i24:sp 1 2 3
Backannotation: i18:i6 1 2 3
Backannotation: i18:i5 1 2 3
Backannotation: i18:i4 1 2 3
Backannotation: i18:i3 1 2 3
Backannotation: i18:i2 1 2 3
Backannotation: i18:i1 1 2 3
Backannotation: i19:i6 1 2 3
Backannotation: i19:i5 1 2 3
Backannotation: i19:i4 1 2 3
Backannotation: i19:i3 1 2 3
Backannotation: i19:i2 1 2 3
Backannotation: i19:i1 1 2 3
Backannotation: i20:i6 1 2 3
Backannotation: i20:i5 1 2 3
Backannotation: i20:i4 1 2 3
Backannotation: i20:i3 1 2 3
Backannotation: i20:i2 1 2 3
Backannotation: i20:i1 1 2 3
Backannotation: i17:i4 1 2 3
Backannotation: i17:i3 1 2 3
Backannotation: i17:i2 1 2 3
Backannotation: i17:i1 1 2 3
Backannotation: i16:i4 1 2 3
Backannotation: i16:i3 1 2 3
Backannotation: i16:i2 1 2 3
Backannotation: i16:i1 1 2 3
Backannotation: i15:i4 1 2 3
Backannotation: i15:i3 1 2 3
Backannotation: i15:i2 1 2 3
Backannotation: i15:i1 1 2 3
Backannotation: i14:i4 1 2 3
Backannotation: i14:i3 1 2 3
Backannotation: i14:i2 1 2 3
Backannotation: i14:i1 1 2 3
Backannotation: i13:i4 1 2 3
Backannotation: i13:i3 1 2 3
Backannotation: i13:i2 1 2 3
Backannotation: i13:i1 1 2 3
Backannotation: i26 1 2 11 12 25 100 9
Backannotation: i25 1 2 11 12 25 100 9
Backannotation: i24 1 2 11 12 25 100 9
Backannotation: i23 1 2 11 12 25 100 9
Backannotation: s2 1 2 3
Backannotation: s1 1 2 3
Backannotation: i26:sw1 1 2 3
Backannotation: i26:sw2 1 2 3
Backannotation: i26:sw3 1 2 3
Backannotation: i26:sw4 1 2 3
Backannotation: i26:sw5 1 2 3
Backannotation: i26:sw6 1 2 3
Backannotation: i26:sw7 1 2 3
Backannotation: i26:sw8 1 2 3
Backannotation: i26:sw9 1 2 3
Backannotation: i26:sw10 1 2 3
Backannotation: i26:s11 1 2 3
Backannotation: i26:s12 1 2 3
Backannotation: i26:i10 9 100 11 12 3a
Backannotation: i26:i8 1 2 3
Backannotation: i26:i9 1 2 3
Backannotation: i26:sw11 1 2 3
Backannotation: i26:sw12 1 2 3
Backannotation: i26:sw13 1 2 3
Backannotation: i26:sw14 1 2 3
Backannotation: i26:sw15 1 2 3
Backannotation: i26:sw16 1 2 3
Backannotation: i26:sw17 1 2 3
Backannotation: i26:sw18 1 2 3
Backannotation: i26:sw19 1 2 3
Backannotation: i26:sw20 1 2 3
Backannotation: i26:s21 1 2 3
Backannotation: i26:s22 1 2 3
Backannotation: i26:sw21 1 2 3
Backannotation: i26:sw22 1 2 3
Backannotation: i26:sw23 1 2 3
Backannotation: i26:sw24 1 2 3
Backannotation: i26:sw25 1 2 3
Backannotation: i26:sw26 1 2 3
Backannotation: i26:sw27 1 2 3
Backannotation: i26:sw28 1 2 3
Backannotation: i26:s29 1 2 3
Backannotation: i26:s30 1 2 3
Backannotation: i26:s31 1 2 3
Backannotation: i26:s32 1 2 3
Backannotation: i26:s33 1 2 3
Backannotation: i26:s34 1 2 3
Backannotation: i26:s35 1 2 3
Backannotation: i26:s36 1 2 3
Backannotation: i26:sw29 1 2 3
Backannotation: i26:sw30 1 2 3
Backannotation: i26:sw31 1 2 3
Backannotation: i26:sw32 1 2 3
Backannotation: i26:sw33 1 2 3
Backannotation: i26:sw34 1 2 3
Backannotation: i26:sw35 1 2 3
Backannotation: i26:sw36 1 2 3
Backannotation: i26:sw37 1 2 3
Backannotation: i26:sw38 1 2 3
Backannotation: i26:sw39 1 2 3
Backannotation: i26:sw40 1 2 3
Backannotation: i26:sw41 1 2 3
Backannotation: i26:sw42 1 2 3
Backannotation: i26:sw43 1 2 3
Backannotation: i26:sw44 1 2 3
Backannotation: i26:sw45 1 2 3
Backannotation: i26:sw46 1 2 3
Backannotation: i26:s47 1 2 3
Backannotation: i26:s48 1 2 3
Backannotation: i26:sw47 1 2 3
Backannotation: i26:sw48 1 2 3
Backannotation: i26:sw49 1 2 3
Backannotation: i26:sw50 1 2 3
Backannotation: i26:sw51 1 2 3
Backannotation: i26:sw52 1 2 3
Backannotation: i26:sw53 1 2 3
Backannotation: i26:sw54 1 2 3
Backannotation: i26:s55 1 2 3
Backannotation: i26:s56 1 2 3
Backannotation: i26:s57 1 2 3
Backannotation: i26:s58 1 2 3
Backannotation: i25:sw1 1 2 3
Backannotation: i25:sw2 1 2 3
Backannotation: i25:sw3 1 2 3
Backannotation: i25:sw4 1 2 3
Backannotation: i25:sw5 1 2 3
Backannotation: i25:sw6 1 2 3
Backannotation: i25:sw7 1 2 3
Backannotation: i25:sw8 1 2 3
Backannotation: i25:sw9 1 2 3
Backannotation: i25:sw10 1 2 3
Backannotation: i25:s11 1 2 3
Backannotation: i25:s12 1 2 3
Backannotation: i25:i10 9 100 11 12 3a
Backannotation: i25:i8 1 2 3
Backannotation: i25:i9 1 2 3
Backannotation: i25:sw11 1 2 3
Backannotation: i25:sw12 1 2 3
Backannotation: i25:sw13 1 2 3
Backannotation: i25:sw14 1 2 3
Backannotation: i25:sw15 1 2 3
Backannotation: i25:sw16 1 2 3
Backannotation: i25:sw17 1 2 3
Backannotation: i25:sw18 1 2 3
Backannotation: i25:sw19 1 2 3
Backannotation: i25:sw20 1 2 3
Backannotation: i25:s21 1 2 3
Backannotation: i25:s22 1 2 3
Backannotation: i25:sw21 1 2 3
Backannotation: i25:sw22 1 2 3
Backannotation: i25:sw23 1 2 3
Backannotation: i25:sw24 1 2 3
Backannotation: i25:sw25 1 2 3
Backannotation: i25:sw26 1 2 3
Backannotation: i25:sw27 1 2 3
Backannotation: i25:sw28 1 2 3
Backannotation: i25:s29 1 2 3
Backannotation: i25:s30 1 2 3
Backannotation: i25:s31 1 2 3
Backannotation: i25:s32 1 2 3
Backannotation: i25:s33 1 2 3
Backannotation: i25:s34 1 2 3
Backannotation: i25:s35 1 2 3
Backannotation: i25:s36 1 2 3
Backannotation: i25:sw29 1 2 3
Backannotation: i25:sw30 1 2 3
Backannotation: i25:sw31 1 2 3
Backannotation: i25:sw32 1 2 3
Backannotation: i25:sw33 1 2 3
Backannotation: i25:sw34 1 2 3
Backannotation: i25:sw35 1 2 3
Backannotation: i25:sw36 1 2 3
Backannotation: i25:sw37 1 2 3
Backannotation: i25:sw38 1 2 3
Backannotation: i25:sw39 1 2 3
Backannotation: i25:sw40 1 2 3
Backannotation: i25:sw41 1 2 3
Backannotation: i25:sw42 1 2 3
Backannotation: i25:sw43 1 2 3
Backannotation: i25:sw44 1 2 3
Backannotation: i25:sw45 1 2 3
Backannotation: i25:sw46 1 2 3
Backannotation: i25:s47 1 2 3
Backannotation: i25:s48 1 2 3
Backannotation: i25:sw47 1 2 3
Backannotation: i25:sw48 1 2 3
Backannotation: i25:sw49 1 2 3
Backannotation: i25:sw50 1 2 3
Backannotation: i25:sw51 1 2 3
Backannotation: i25:sw52 1 2 3
Backannotation: i25:sw53 1 2 3
Backannotation: i25:sw54 1 2 3
Backannotation: i25:s55 1 2 3
Backannotation: i25:s56 1 2 3
Backannotation: i25:s57 1 2 3
Backannotation: i25:s58 1 2 3
Backannotation: i24:sw1 1 2 3
Backannotation: i24:sw2 1 2 3
Backannotation: i24:sw3 1 2 3
Backannotation: i24:sw4 1 2 3
Backannotation: i24:sw5 1 2 3
Backannotation: i24:sw6 1 2 3
Backannotation: i24:sw7 1 2 3
Backannotation: i24:sw8 1 2 3
Backannotation: i24:sw9 1 2 3
Backannotation: i24:sw10 1 2 3
Backannotation: i24:s11 1 2 3
Backannotation: i24:s12 1 2 3
Backannotation: i24:i10 9 100 11 12 3a
Backannotation: i24:i8 1 2 3
Backannotation: i24:i9 1 2 3
Backannotation: i24:sw11 1 2 3
Backannotation: i24:sw12 1 2 3
Backannotation: i24:sw13 1 2 3
Backannotation: i24:sw14 1 2 3
Backannotation: i24:sw15 1 2 3
Backannotation: i24:sw16 1 2 3
Backannotation: i24:sw17 1 2 3
Backannotation: i24:sw18 1 2 3
Backannotation: i24:sw19 1 2 3
Backannotation: i24:sw20 1 2 3
Backannotation: i24:s21 1 2 3
Backannotation: i24:s22 1 2 3
Backannotation: i24:sw21 1 2 3
Backannotation: i24:sw22 1 2 3
Backannotation: i24:sw23 1 2 3
Backannotation: i24:sw24 1 2 3
Backannotation: i24:sw25 1 2 3
Backannotation: i24:sw26 1 2 3
Backannotation: i24:sw27 1 2 3
Backannotation: i24:sw28 1 2 3
Backannotation: i24:s29 1 2 3
Backannotation: i24:s30 1 2 3
Backannotation: i24:s31 1 2 3
Backannotation: i24:s32 1 2 3
Backannotation: i24:s33 1 2 3
Backannotation: i24:s34 1 2 3
Backannotation: i24:s35 1 2 3
Backannotation: i24:s36 1 2 3
Backannotation: i24:sw29 1 2 3
Backannotation: i24:sw30 1 2 3
Backannotation: i24:sw31 1 2 3
Backannotation: i24:sw32 1 2 3
Backannotation: i24:sw33 1 2 3
Backannotation: i24:sw34 1 2 3
Backannotation: i24:sw35 1 2 3
Backannotation: i24:sw36 1 2 3
Backannotation: i24:sw37 1 2 3
Backannotation: i24:sw38 1 2 3
Backannotation: i24:sw39 1 2 3
Backannotation: i24:sw40 1 2 3
Backannotation: i24:sw41 1 2 3
Backannotation: i24:sw42 1 2 3
Backannotation: i24:sw43 1 2 3
Backannotation: i24:sw44 1 2 3
Backannotation: i24:sw45 1 2 3
Backannotation: i24:sw46 1 2 3
Backannotation: i24:s47 1 2 3
Backannotation: i24:s48 1 2 3
Backannotation: i24:sw47 1 2 3
Backannotation: i24:sw48 1 2 3
Backannotation: i24:sw49 1 2 3
Backannotation: i24:sw50 1 2 3
Backannotation: i24:sw51 1 2 3
Backannotation: i24:sw52 1 2 3
Backannotation: i24:sw53 1 2 3
Backannotation: i24:sw54 1 2 3
Backannotation: i24:s55 1 2 3
Backannotation: i24:s56 1 2 3
Backannotation: i24:s57 1 2 3
Backannotation: i24:s58 1 2 3
Backannotation: i23:sw1 1 2 3
Backannotation: i23:sw2 1 2 3
Backannotation: i23:sw3 1 2 3
Backannotation: i23:sw4 1 2 3
Backannotation: i23:sw5 1 2 3
Backannotation: i23:sw6 1 2 3
Backannotation: i23:sw7 1 2 3
Backannotation: i23:sw8 1 2 3
Backannotation: i23:sw9 1 2 3
Backannotation: i23:sw10 1 2 3
Backannotation: i23:s11 1 2 3
Backannotation: i23:s12 1 2 3
Backannotation: i23:i10 9 100 11 12 3a
Backannotation: i23:i8 1 2 3
Backannotation: i23:i9 1 2 3
Backannotation: i23:sw11 1 2 3
Backannotation: i23:sw12 1 2 3
Backannotation: i23:sw13 1 2 3
Backannotation: i23:sw14 1 2 3
Backannotation: i23:sw15 1 2 3
Backannotation: i23:sw16 1 2 3
Backannotation: i23:sw17 1 2 3
Backannotation: i23:sw18 1 2 3
Backannotation: i23:sw19 1 2 3
Backannotation: i23:sw20 1 2 3
Backannotation: i23:s21 1 2 3
Backannotation: i23:s22 1 2 3
Backannotation: i23:sw21 1 2 3
Backannotation: i23:sw22 1 2 3
Backannotation: i23:sw23 1 2 3
Backannotation: i23:sw24 1 2 3
Backannotation: i23:sw25 1 2 3
Backannotation: i23:sw26 1 2 3
Backannotation: i23:sw27 1 2 3
Backannotation: i23:sw28 1 2 3
Backannotation: i23:s29 1 2 3
Backannotation: i23:s30 1 2 3
Backannotation: i23:s31 1 2 3
Backannotation: i23:s32 1 2 3
Backannotation: i23:s33 1 2 3
Backannotation: i23:s34 1 2 3
Backannotation: i23:s35 1 2 3
Backannotation: i23:s36 1 2 3
Backannotation: i23:sw29 1 2 3
Backannotation: i23:sw30 1 2 3
Backannotation: i23:sw31 1 2 3
Backannotation: i23:sw32 1 2 3
Backannotation: i23:sw33 1 2 3
Backannotation: i23:sw34 1 2 3
Backannotation: i23:sw35 1 2 3
Backannotation: i23:sw36 1 2 3
Backannotation: i23:sw37 1 2 3
Backannotation: i23:sw38 1 2 3
Backannotation: i23:sw39 1 2 3
Backannotation: i23:sw40 1 2 3
Backannotation: i23:sw41 1 2 3
Backannotation: i23:sw42 1 2 3
Backannotation: i23:sw43 1 2 3
Backannotation: i23:sw44 1 2 3
Backannotation: i23:sw45 1 2 3
Backannotation: i23:sw46 1 2 3
Backannotation: i23:s47 1 2 3
Backannotation: i23:s48 1 2 3
Backannotation: i23:sw47 1 2 3
Backannotation: i23:sw48 1 2 3
Backannotation: i23:sw49 1 2 3
Backannotation: i23:sw50 1 2 3
Backannotation: i23:sw51 1 2 3
Backannotation: i23:sw52 1 2 3
Backannotation: i23:sw53 1 2 3
Backannotation: i23:sw54 1 2 3
Backannotation: i23:s55 1 2 3
Backannotation: i23:s56 1 2 3
Backannotation: i23:s57 1 2 3
Backannotation: i23:s58 1 2 3
Backannotation: i26:i10:i25 1 2 3
Backannotation: i26:i10:i27 1 2 3
Backannotation: i26:i10:i26 1 2 3
Backannotation: i26:i10:i24 1 2 3
Backannotation: i26:i10:i23 1 2 3
Backannotation: i26:i10:i22 1 2 3
Backannotation: i25:i10:i25 1 2 3
Backannotation: i25:i10:i27 1 2 3
Backannotation: i25:i10:i26 1 2 3
Backannotation: i25:i10:i24 1 2 3
Backannotation: i25:i10:i23 1 2 3
Backannotation: i25:i10:i22 1 2 3
Backannotation: i24:i10:i25 1 2 3
Backannotation: i24:i10:i27 1 2 3
Backannotation: i24:i10:i26 1 2 3
Backannotation: i24:i10:i24 1 2 3
Backannotation: i24:i10:i23 1 2 3
Backannotation: i24:i10:i22 1 2 3
Backannotation: i23:i10:i25 1 2 3
Backannotation: i23:i10:i27 1 2 3
Backannotation: i23:i10:i26 1 2 3
Backannotation: i23:i10:i24 1 2 3
Backannotation: i23:i10:i23 1 2 3
Backannotation: i23:i10:i22 1 2 3
Backannotation: i26 1 2 11 12 25 100 9
Backannotation: i25 1 2 11 12 25 100 9
Backannotation: i24 1 2 11 12 25 100 9
Backannotation: i23 1 2 11 12 25 100 9
Backannotation: s2 1 2 3
Backannotation: s1 1 2 3
Backannotation: i26:sw1 1 2 3
Backannotation: i26:sw2 1 2 3
Backannotation: i26:sw3 1 2 3
Backannotation: i26:sw4 1 2 3
Backannotation: i26:sw5 1 2 3
Backannotation: i26:sw6 1 2 3
Backannotation: i26:sw7 1 2 3
Backannotation: i26:sw8 1 2 3
Backannotation: i26:sw9 1 2 3
Backannotation: i26:sw10 1 2 3
Backannotation: i26:s11 1 2 3
Backannotation: i26:s12 1 2 3
Backannotation: i26:i10 9 100 11 12 3a
Backannotation: i26:i8 1 2 3
Backannotation: i26:i9 1 2 3
Backannotation: i26:sw11 1 2 3
Backannotation: i26:sw12 1 2 3
Backannotation: i26:sw13 1 2 3
Backannotation: i26:sw14 1 2 3
Backannotation: i26:sw15 1 2 3
Backannotation: i26:sw16 1 2 3
Backannotation: i26:sw17 1 2 3
Backannotation: i26:sw18 1 2 3
Backannotation: i26:sw19 1 2 3
Backannotation: i26:sw20 1 2 3
Backannotation: i26:s21 1 2 3
Backannotation: i26:s22 1 2 3
Backannotation: i26:sw21 1 2 3
Backannotation: i26:sw22 1 2 3
Backannotation: i26:sw23 1 2 3
Backannotation: i26:sw24 1 2 3
Backannotation: i26:sw25 1 2 3
Backannotation: i26:sw26 1 2 3
Backannotation: i26:sw27 1 2 3
Backannotation: i26:sw28 1 2 3
Backannotation: i26:s29 1 2 3
Backannotation: i26:s30 1 2 3
Backannotation: i26:s31 1 2 3
Backannotation: i26:s32 1 2 3
Backannotation: i26:s33 1 2 3
Backannotation: i26:s34 1 2 3
Backannotation: i26:s35 1 2 3
Backannotation: i26:s36 1 2 3
Backannotation: i26:sw29 1 2 3
Backannotation: i26:sw30 1 2 3
Backannotation: i26:sw31 1 2 3
Backannotation: i26:sw32 1 2 3
Backannotation: i26:sw33 1 2 3
Backannotation: i26:sw34 1 2 3
Backannotation: i26:sw35 1 2 3
Backannotation: i26:sw36 1 2 3
Backannotation: i26:sw37 1 2 3
Backannotation: i26:sw38 1 2 3
Backannotation: i26:sw39 1 2 3
Backannotation: i26:sw40 1 2 3
Backannotation: i26:sw41 1 2 3
Backannotation: i26:sw42 1 2 3
Backannotation: i26:sw43 1 2 3
Backannotation: i26:sw44 1 2 3
Backannotation: i26:sw45 1 2 3
Backannotation: i26:sw46 1 2 3
Backannotation: i26:s47 1 2 3
Backannotation: i26:s48 1 2 3
Backannotation: i26:sw47 1 2 3
Backannotation: i26:sw48 1 2 3
Backannotation: i26:sw49 1 2 3
Backannotation: i26:sw50 1 2 3
Backannotation: i26:sw51 1 2 3
Backannotation: i26:sw52 1 2 3
Backannotation: i26:sw53 1 2 3
Backannotation: i26:sw54 1 2 3
Backannotation: i26:s55 1 2 3
Backannotation: i26:s56 1 2 3
Backannotation: i26:s57 1 2 3
Backannotation: i26:s58 1 2 3
Backannotation: i25:sw1 1 2 3
Backannotation: i25:sw2 1 2 3
Backannotation: i25:sw3 1 2 3
Backannotation: i25:sw4 1 2 3
Backannotation: i25:sw5 1 2 3
Backannotation: i25:sw6 1 2 3
Backannotation: i25:sw7 1 2 3
Backannotation: i25:sw8 1 2 3
Backannotation: i25:sw9 1 2 3
Backannotation: i25:sw10 1 2 3
Backannotation: i25:s11 1 2 3
Backannotation: i25:s12 1 2 3
Backannotation: i25:i10 9 100 11 12 3a
Backannotation: i25:i8 1 2 3
Backannotation: i25:i9 1 2 3
Backannotation: i25:sw11 1 2 3
Backannotation: i25:sw12 1 2 3
Backannotation: i25:sw13 1 2 3
Backannotation: i25:sw14 1 2 3
Backannotation: i25:sw15 1 2 3
Backannotation: i25:sw16 1 2 3
Backannotation: i25:sw17 1 2 3
Backannotation: i25:sw18 1 2 3
Backannotation: i25:sw19 1 2 3
Backannotation: i25:sw20 1 2 3
Backannotation: i25:s21 1 2 3
Backannotation: i25:s22 1 2 3
Backannotation: i25:sw21 1 2 3
Backannotation: i25:sw22 1 2 3
Backannotation: i25:sw23 1 2 3
Backannotation: i25:sw24 1 2 3
Backannotation: i25:sw25 1 2 3
Backannotation: i25:sw26 1 2 3
Backannotation: i25:sw27 1 2 3
Backannotation: i25:sw28 1 2 3
Backannotation: i25:s29 1 2 3
Backannotation: i25:s30 1 2 3
Backannotation: i25:s31 1 2 3
Backannotation: i25:s32 1 2 3
Backannotation: i25:s33 1 2 3
Backannotation: i25:s34 1 2 3
Backannotation: i25:s35 1 2 3
Backannotation: i25:s36 1 2 3
Backannotation: i25:sw29 1 2 3
Backannotation: i25:sw30 1 2 3
Backannotation: i25:sw31 1 2 3
Backannotation: i25:sw32 1 2 3
Backannotation: i25:sw33 1 2 3
Backannotation: i25:sw34 1 2 3
Backannotation: i25:sw35 1 2 3
Backannotation: i25:sw36 1 2 3
Backannotation: i25:sw37 1 2 3
Backannotation: i25:sw38 1 2 3
Backannotation: i25:sw39 1 2 3
Backannotation: i25:sw40 1 2 3
Backannotation: i25:sw41 1 2 3
Backannotation: i25:sw42 1 2 3
Backannotation: i25:sw43 1 2 3
Backannotation: i25:sw44 1 2 3
Backannotation: i25:sw45 1 2 3
Backannotation: i25:sw46 1 2 3
Backannotation: i25:s47 1 2 3
Backannotation: i25:s48 1 2 3
Backannotation: i25:sw47 1 2 3
Backannotation: i25:sw48 1 2 3
Backannotation: i25:sw49 1 2 3
Backannotation: i25:sw50 1 2 3
Backannotation: i25:sw51 1 2 3
Backannotation: i25:sw52 1 2 3
Backannotation: i25:sw53 1 2 3
Backannotation: i25:sw54 1 2 3
Backannotation: i25:s55 1 2 3
Backannotation: i25:s56 1 2 3
Backannotation: i25:s57 1 2 3
Backannotation: i25:s58 1 2 3
Backannotation: i24:sw1 1 2 3
Backannotation: i24:sw2 1 2 3
Backannotation: i24:sw3 1 2 3
Backannotation: i24:sw4 1 2 3
Backannotation: i24:sw5 1 2 3
Backannotation: i24:sw6 1 2 3
Backannotation: i24:sw7 1 2 3
Backannotation: i24:sw8 1 2 3
Backannotation: i24:sw9 1 2 3
Backannotation: i24:sw10 1 2 3
Backannotation: i24:s11 1 2 3
Backannotation: i24:s12 1 2 3
Backannotation: i24:i10 9 100 11 12 3a
Backannotation: i24:i8 1 2 3
Backannotation: i24:i9 1 2 3
Backannotation: i24:sw11 1 2 3
Backannotation: i24:sw12 1 2 3
Backannotation: i24:sw13 1 2 3
Backannotation: i24:sw14 1 2 3
Backannotation: i24:sw15 1 2 3
Backannotation: i24:sw16 1 2 3
Backannotation: i24:sw17 1 2 3
Backannotation: i24:sw18 1 2 3
Backannotation: i24:sw19 1 2 3
Backannotation: i24:sw20 1 2 3
Backannotation: i24:s21 1 2 3
Backannotation: i24:s22 1 2 3
Backannotation: i24:sw21 1 2 3
Backannotation: i24:sw22 1 2 3
Backannotation: i24:sw23 1 2 3
Backannotation: i24:sw24 1 2 3
Backannotation: i24:sw25 1 2 3
Backannotation: i24:sw26 1 2 3
Backannotation: i24:sw27 1 2 3
Backannotation: i24:sw28 1 2 3
Backannotation: i24:s29 1 2 3
Backannotation: i24:s30 1 2 3
Backannotation: i24:s31 1 2 3
Backannotation: i24:s32 1 2 3
Backannotation: i24:s33 1 2 3
Backannotation: i24:s34 1 2 3
Backannotation: i24:s35 1 2 3
Backannotation: i24:s36 1 2 3
Backannotation: i24:sw29 1 2 3
Backannotation: i24:sw30 1 2 3
Backannotation: i24:sw31 1 2 3
Backannotation: i24:sw32 1 2 3
Backannotation: i24:sw33 1 2 3
Backannotation: i24:sw34 1 2 3
Backannotation: i24:sw35 1 2 3
Backannotation: i24:sw36 1 2 3
Backannotation: i24:sw37 1 2 3
Backannotation: i24:sw38 1 2 3
Backannotation: i24:sw39 1 2 3
Backannotation: i24:sw40 1 2 3
Backannotation: i24:sw41 1 2 3
Backannotation: i24:sw42 1 2 3
Backannotation: i24:sw43 1 2 3
Backannotation: i24:sw44 1 2 3
Backannotation: i24:sw45 1 2 3
Backannotation: i24:sw46 1 2 3
Backannotation: i24:s47 1 2 3
Backannotation: i24:s48 1 2 3
Backannotation: i24:sw47 1 2 3
Backannotation: i24:sw48 1 2 3
Backannotation: i24:sw49 1 2 3
Backannotation: i24:sw50 1 2 3
Backannotation: i24:sw51 1 2 3
Backannotation: i24:sw52 1 2 3
Backannotation: i24:sw53 1 2 3
Backannotation: i24:sw54 1 2 3
Backannotation: i24:s55 1 2 3
Backannotation: i24:s56 1 2 3
Backannotation: i24:s57 1 2 3
Backannotation: i24:s58 1 2 3
Backannotation: i23:sw1 1 2 3
Backannotation: i23:sw2 1 2 3
Backannotation: i23:sw3 1 2 3
Backannotation: i23:sw4 1 2 3
Backannotation: i23:sw5 1 2 3
Backannotation: i23:sw6 1 2 3
Backannotation: i23:sw7 1 2 3
Backannotation: i23:sw8 1 2 3
Backannotation: i23:sw9 1 2 3
Backannotation: i23:sw10 1 2 3
Backannotation: i23:s11 1 2 3
Backannotation: i23:s12 1 2 3
Backannotation: i23:i10 9 100 11 12 3a
Backannotation: i23:i8 1 2 3
Backannotation: i23:i9 1 2 3
Backannotation: i23:sw11 1 2 3
Backannotation: i23:sw12 1 2 3
Backannotation: i23:sw13 1 2 3
Backannotation: i23:sw14 1 2 3
Backannotation: i23:sw15 1 2 3
Backannotation: i23:sw16 1 2 3
Backannotation: i23:sw17 1 2 3
Backannotation: i23:sw18 1 2 3
Backannotation: i23:sw19 1 2 3
Backannotation: i23:sw20 1 2 3
Backannotation: i23:s21 1 2 3
Backannotation: i23:s22 1 2 3
Backannotation: i23:sw21 1 2 3
Backannotation: i23:sw22 1 2 3
Backannotation: i23:sw23 1 2 3
Backannotation: i23:sw24 1 2 3
Backannotation: i23:sw25 1 2 3
Backannotation: i23:sw26 1 2 3
Backannotation: i23:sw27 1 2 3
Backannotation: i23:sw28 1 2 3
Backannotation: i23:s29 1 2 3
Backannotation: i23:s30 1 2 3
Backannotation: i23:s31 1 2 3
Backannotation: i23:s32 1 2 3
Backannotation: i23:s33 1 2 3
Backannotation: i23:s34 1 2 3
Backannotation: i23:s35 1 2 3
Backannotation: i23:s36 1 2 3
Backannotation: i23:sw29 1 2 3
Backannotation: i23:sw30 1 2 3
Backannotation: i23:sw31 1 2 3
Backannotation: i23:sw32 1 2 3
Backannotation: i23:sw33 1 2 3
Backannotation: i23:sw34 1 2 3
Backannotation: i23:sw35 1 2 3
Backannotation: i23:sw36 1 2 3
Backannotation: i23:sw37 1 2 3
Backannotation: i23:sw38 1 2 3
Backannotation: i23:sw39 1 2 3
Backannotation: i23:sw40 1 2 3
Backannotation: i23:sw41 1 2 3
Backannotation: i23:sw42 1 2 3
Backannotation: i23:sw43 1 2 3
Backannotation: i23:sw44 1 2 3
Backannotation: i23:sw45 1 2 3
Backannotation: i23:sw46 1 2 3
Backannotation: i23:s47 1 2 3
Backannotation: i23:s48 1 2 3
Backannotation: i23:sw47 1 2 3
Backannotation: i23:sw48 1 2 3
Backannotation: i23:sw49 1 2 3
Backannotation: i23:sw50 1 2 3
Backannotation: i23:sw51 1 2 3
Backannotation: i23:sw52 1 2 3
Backannotation: i23:sw53 1 2 3
Backannotation: i23:sw54 1 2 3
Backannotation: i23:s55 1 2 3
Backannotation: i23:s56 1 2 3
Backannotation: i23:s57 1 2 3
Backannotation: i23:s58 1 2 3
Backannotation: i26:i10:i25 1 2 3
Backannotation: i26:i10:i27 1 2 3
Backannotation: i26:i10:i26 1 2 3
Backannotation: i26:i10:i24 1 2 3
Backannotation: i26:i10:i23 1 2 3
Backannotation: i26:i10:i22 1 2 3
Backannotation: i25:i10:i25 1 2 3
Backannotation: i25:i10:i27 1 2 3
Backannotation: i25:i10:i26 1 2 3
Backannotation: i25:i10:i24 1 2 3
Backannotation: i25:i10:i23 1 2 3
Backannotation: i25:i10:i22 1 2 3
Backannotation: i24:i10:i25 1 2 3
Backannotation: i24:i10:i27 1 2 3
Backannotation: i24:i10:i26 1 2 3
Backannotation: i24:i10:i24 1 2 3
Backannotation: i24:i10:i23 1 2 3
Backannotation: i24:i10:i22 1 2 3
Backannotation: i23:i10:i25 1 2 3
Backannotation: i23:i10:i27 1 2 3
Backannotation: i23:i10:i26 1 2 3
Backannotation: i23:i10:i24 1 2 3
Backannotation: i23:i10:i23 1 2 3
Backannotation: i23:i10:i22 1 2 3
Backannotation: u7 1 2 3
Backannotation: u9 1 2 3
Backannotation: u8 1 2 3
Backannotation: u1 1 2 3 4 5 6 7 8
Backannotation: u5 1 2 3 4 5 6 7 8
Backannotation: u2 1 2 3
Backannotation: u3 1 2 3
Backannotation: u4 1 2 3
Backannotation: x2 vcc vss gnd msg x3 in out test
Backannotation: x3 vcc vss gnd msg x3 in out test
Backannotation: x1 vcc vss gnd msg x3 in out test
Backannotation: u6 1 2 3
Backannotation: u7 1 2 3
Backannotation: u8 1 2 3
Backannotation: u9 1 2 3
Backannotation: u10 1 2 3
Backannotation: u11 1 2 3
Backannotation: u12 1 2 3 4 5 6 7 8
Backannotation: u13 1 2 3 4 5 6 7 8
Backannotation: u14 1 2 3
Backannotation: u15 1 2 3
Backannotation: u16 1 2 3
Backannotation: x4 vcc vss gnd msg x3 in out test
Backannotation: x5 vcc vss gnd msg x3 in out test
Backannotation: x6 vcc vss gnd msg x3 in out test
Backannotation: u17 1 2 3
Backannotation: u18 1 2 3
Backannotation: u19 1 2 3
Backannotation: u20 1 2 3
Backannotation: u21 1 2 3
Backannotation: u22 1 2 3
Backannotation: x2:u1 1 2 3 4 5 6 7 8
Backannotation: x2:u2 11 4 2 10 7
Backannotation: x3:u1 1 2 3 4 5 6 7 8
Backannotation: x3:u2 11 4 2 10 7
Backannotation: x1:u1 1 2 3 4 5 6 7 8
Backannotation: x1:u2 11 4 2 10 7
Backannotation: x4:u1 1 2 3 4 5 6 7 8
Backannotation: x4:u2 11 4 2 10 7
Backannotation: x5:u1 1 2 3 4 5 6 7 8
Backannotation: x5:u2 11 4 2 10 7
Backannotation: x6:u1 1 2 3 4 5 6 7 8
Backannotation: x6:u2 11 4 2 10 7
Variables:
	0	V(-y)	voltage
	1	V(n003)	voltage
	2	V(x)	voltage
	3	V(n017)	voltage
	4	V(n028)	voltage
	5	V(n010)	voltage
	6	V(n024)	voltage
	7	V(n038)	voltage
	8	V(z)	voltage
	9	V(n041)	voltage
	10	V(n033)	voltage
	11	V(+15v)	voltage
	12	V(-15v)	voltage
	13	V(n034)	voltage
	14	V(n018)	voltage
	15	V(n004)	voltage
	16	V(m)	voltage
	17	V(nc_01)	voltage
	18	V(n013)	voltage
	19	V(t2)	voltage
	20	V(n042)	voltage
	21	V(nc_02)	voltage
	22	V(n026)	voltage
	23	V(n036)	voltage
	24	V(n035)	voltage
	25	V(n023)	voltage
	26	V(n022)	voltage
	27	V(n008)	voltage
	28	V(n007)	voltage
	29	V(n011)	voltage
	30	V(n001)	voltage
	31	V(n015)	voltage
	32	V(n027)	voltage
	33	V(z1)	voltage
	34	V(n009)	voltage
	35	V(n021)	voltage
	36	V(n037)	voltage
	37	V(n014)	voltage
	38	V(n039)	voltage
	39	V(n029)	voltage
	40	V(n030)	voltage
	41	V(n016)	voltage
	42	V(n002)	voltage
	43	V(nc_03)	voltage
	44	V(n012)	voltage
	45	V(n040)	voltage
	46	V(nc_04)	voltage
	47	V(n025)	voltage
	48	V(n032)	voltage
	49	V(n031)	voltage
	50	V(n020)	voltage
	51	V(n019)	voltage
	52	V(n006)	voltage
	53	V(n005)	voltage
	54	I(C6)	device_current
	55	I(C5)	device_current
	56	I(C4)	device_current
	57	I(C3)	device_current
	58	I(C2)	device_current
	59	I(C1)	device_current
	60	I(R38)	device_current
	61	I(R37)	device_current
	62	I(R36)	device_current
	63	I(R35)	device_current
	64	I(R34)	device_current
	65	I(R33)	device_current