Title: * /Users/Dan/Documents/ThesisWork/LTSpice/CSK_TS_Ideal.asc
Date: Tue Nov 15 18:26:43 2016
Plotname: Transient Analysis
Flags: real forward
No. Variables: 134
No. Points:          613
Offset:    0.0000000000000000e+00
Command: Linear Technology Corporation LTspice IV -- Alternate Solver
Backannotation: 1 1 2 3 4
Backannotation: 2 1 2 3 4
Backannotation: i21 1 4 8 2
Backannotation: i24 1 4 8 2
Backannotation: i23 1 4 8 2
Backannotation: i22 1 4 8 2
Backannotation: i20 1 2 3 4 8 5
Backannotation: i18 1 2 3 4 8 5
Backannotation: i19 1 2 3 4 8 5
Backannotation: i17 1 2 4 8 3
Backannotation: i16 1 2 4 8 3
Backannotation: i15 1 2 4 8 3
Backannotation: i14 1 2 4 8 3
Backannotation: i13 1 2 4 8 3
Backannotation: i53 1 2 11 12 25
Backannotation: i54b 1 2 11 12 25
Backannotation: i91 1 2 3
Backannotation: i90 1 2 3
Backannotation: i89 1 2 3
Backannotation: i21:sn 1 2 3
Backannotation: i21:sp 1 2 3
Backannotation: i24:sn 1 2 3
Backannotation: i24:sp 1 2 3
Backannotation: i23:sn 1 2 3
Backannotation: i23:sp 1 2 3
Backannotation: i22:sn 1 2 3
Backannotation: i22:sp 1 2 3
Backannotation: i20:i6 1 2 3
Backannotation: i20:i5 1 2 3
Backannotation: i20:i4 1 2 3
Backannotation: i20:i3 1 2 3
Backannotation: i20:i2 1 2 3
Backannotation: i20:i1 1 2 3
Backannotation: i18:i6 1 2 3
Backannotation: i18:i5 1 2 3
Backannotation: i18:i4 1 2 3
Backannotation: i18:i3 1 2 3
Backannotation: i18:i2 1 2 3
Backannotation: i18:i1 1 2 3
Backannotation: i19:i6 1 2 3
Backannotation: i19:i5 1 2 3
Backannotation: i19:i4 1 2 3
Backannotation: i19:i3 1 2 3
Backannotation: i19:i2 1 2 3
Backannotation: i19:i1 1 2 3
Backannotation: i17:i4 1 2 3
Backannotation: i17:i3 1 2 3
Backannotation: i17:i2 1 2 3
Backannotation: i17:i1 1 2 3
Backannotation: i16:i4 1 2 3
Backannotation: i16:i3 1 2 3
Backannotation: i16:i2 1 2 3
Backannotation: i16:i1 1 2 3
Backannotation: i15:i4 1 2 3
Backannotation: i15:i3 1 2 3
Backannotation: i15:i2 1 2 3
Backannotation: i15:i1 1 2 3
Backannotation: i14:i4 1 2 3
Backannotation: i14:i3 1 2 3
Backannotation: i14:i2 1 2 3
Backannotation: i14:i1 1 2 3
Backannotation: i13:i4 1 2 3
Backannotation: i13:i3 1 2 3
Backannotation: i13:i2 1 2 3
Backannotation: i13:i1 1 2 3
Backannotation: i24 1 4 8 2
Backannotation: i23 1 4 8 2
Backannotation: i21 1 4 8 2
Backannotation: i22 1 4 8 2
Backannotation: i20 1 2 3 4 8 5
Backannotation: i52 1 2 4 8 3
Backannotation: i63 1 2 4 8 3
Backannotation: i64 1 2 11 12 25
Backannotation: i67 1 2 3
Backannotation: i66 1 2 3
Backannotation: i65 1 2 3
Backannotation: i24:sn 1 2 3
Backannotation: i24:sp 1 2 3
Backannotation: i23:sn 1 2 3
Backannotation: i23:sp 1 2 3
Backannotation: i21:sn 1 2 3
Backannotation: i21:sp 1 2 3
Backannotation: i22:sn 1 2 3
Backannotation: i22:sp 1 2 3
Backannotation: i20:i6 1 2 3
Backannotation: i20:i5 1 2 3
Backannotation: i20:i4 1 2 3
Backannotation: i20:i3 1 2 3
Backannotation: i20:i2 1 2 3
Backannotation: i20:i1 1 2 3
Backannotation: i52:i4 1 2 3
Backannotation: i52:i3 1 2 3
Backannotation: i52:i2 1 2 3
Backannotation: i52:i1 1 2 3
Backannotation: i63:i4 1 2 3
Backannotation: i63:i3 1 2 3
Backannotation: i63:i2 1 2 3
Backannotation: i63:i1 1 2 3
Backannotation: i21 1 4 8 2
Backannotation: i24 1 4 8 2
Backannotation: i23 1 4 8 2
Backannotation: i22 1 4 8 2
Backannotation: i18 1 2 3 4 8 5
Backannotation: i19 1 2 3 4 8 5
Backannotation: i20 1 2 3 4 8 5
Backannotation: i17 1 2 4 8 3
Backannotation: i16 1 2 4 8 3
Backannotation: i15 1 2 4 8 3
Backannotation: i14 1 2 4 8 3
Backannotation: i13 1 2 4 8 3
Backannotation: i64 1 2 11 12 25
Backannotation: i67 1 2 3
Backannotation: i66 1 2 3
Backannotation: i65 1 2 3
Backannotation: i21:sn 1 2 3
Backannotation: i21:sp 1 2 3
Backannotation: i24:sn 1 2 3
Backannotation: i24:sp 1 2 3
Backannotation: i23:sn 1 2 3
Backannotation: i23:sp 1 2 3
Backannotation: i22:sn 1 2 3
Backannotation: i22:sp 1 2 3
Backannotation: i18:i6 1 2 3
Backannotation: i18:i5 1 2 3
Backannotation: i18:i4 1 2 3
Backannotation: i18:i3 1 2 3
Backannotation: i18:i2 1 2 3
Backannotation: i18:i1 1 2 3
Backannotation: i19:i6 1 2 3
Backannotation: i19:i5 1 2 3
Backannotation: i19:i4 1 2 3
Backannotation: i19:i3 1 2 3
Backannotation: i19:i2 1 2 3
Backannotation: i19:i1 1 2 3
Backannotation: i20:i6 1 2 3
Backannotation: i20:i5 1 2 3
Backannotation: i20:i4 1 2 3
Backannotation: i20:i3 1 2 3
Backannotation: i20:i2 1 2 3
Backannotation: i20:i1 1 2 3
Backannotation: i17:i4 1 2 3
Backannotation: i17:i3 1 2 3
Backannotation: i17:i2 1 2 3
Backannotation: i17:i1 1 2 3
Backannotation: i16:i4 1 2 3
Backannotation: i16:i3 1 2 3
Backannotation: i16:i2 1 2 3
Backannotation: i16:i1 1 2 3
Backannotation: i15:i4 1 2 3
Backannotation: i15:i3 1 2 3
Backannotation: i15:i2 1 2 3
Backannotation: i15:i1 1 2 3
Backannotation: i14:i4 1 2 3
Backannotation: i14:i3 1 2 3
Backannotation: i14:i2 1 2 3
Backannotation: i14:i1 1 2 3
Backannotation: i13:i4 1 2 3
Backannotation: i13:i3 1 2 3
Backannotation: i13:i2 1 2 3
Backannotation: i13:i1 1 2 3
Backannotation: i21 1 4 8 2
Backannotation: i22 1 4 8 2
Backannotation: i23 1 4 8 2
Backannotation: i24 1 4 8 2
Backannotation: i18 1 2 3 4 8 5
Backannotation: i19 1 2 3 4 8 5
Backannotation: i20 1 2 3 4 8 5
Backannotation: i17 1 2 4 8 3
Backannotation: i16 1 2 4 8 3
Backannotation: i15 1 2 4 8 3
Backannotation: i14 1 2 4 8 3
Backannotation: i13 1 2 4 8 3
Backannotation: i53 1 2 11 12 25
Backannotation: i76 1 2 3
Backannotation: i75 1 2 3
Backannotation: i74 1 2 3
Backannotation: i21:sn 1 2 3
Backannotation: i21:sp 1 2 3
Backannotation: i22:sn 1 2 3
Backannotation: i22:sp 1 2 3
Backannotation: i23:sn 1 2 3
Backannotation: i23:sp 1 2 3
Backannotation: i24:sn 1 2 3
Backannotation: i24:sp 1 2 3
Backannotation: i18:i6 1 2 3
Backannotation: i18:i5 1 2 3
Backannotation: i18:i4 1 2 3
Backannotation: i18:i3 1 2 3
Backannotation: i18:i2 1 2 3
Backannotation: i18:i1 1 2 3
Backannotation: i19:i6 1 2 3
Backannotation: i19:i5 1 2 3
Backannotation: i19:i4 1 2 3
Backannotation: i19:i3 1 2 3
Backannotation: i19:i2 1 2 3
Backannotation: i19:i1 1 2 3
Backannotation: i20:i6 1 2 3
Backannotation: i20:i5 1 2 3
Backannotation: i20:i4 1 2 3
Backannotation: i20:i3 1 2 3
Backannotation: i20:i2 1 2 3
Backannotation: i20:i1 1 2 3
Backannotation: i17:i4 1 2 3
Backannotation: i17:i3 1 2 3
Backannotation: i17:i2 1 2 3
Backannotation: i17:i1 1 2 3
Backannotation: i16:i4 1 2 3
Backannotation: i16:i3 1 2 3
Backannotation: i16:i2 1 2 3
Backannotation: i16:i1 1 2 3
Backannotation: i15:i4 1 2 3
Backannotation: i15:i3 1 2 3
Backannotation: i15:i2 1 2 3
Backannotation: i15:i1 1 2 3
Backannotation: i14:i4 1 2 3
Backannotation: i14:i3 1 2 3
Backannotation: i14:i2 1 2 3
Backannotation: i14:i1 1 2 3
Backannotation: i13:i4 1 2 3
Backannotation: i13:i3 1 2 3
Backannotation: i13:i2 1 2 3
Backannotation: i13:i1 1 2 3
Backannotation: i26 1 2 11 12 25 100 9
Backannotation: i25 1 2 11 12 25 100 9
Backannotation: i24 1 2 11 12 25 100 9
Backannotation: i23 1 2 11 12 25 100 9
Backannotation: s2 1 2 3
Backannotation: s1 1 2 3
Backannotation: i26:sw1 1 2 3
Backannotation: i26:sw2 1 2 3
Backannotation: i26:sw3 1 2 3
Backannotation: i26:sw4 1 2 3
Backannotation: i26:sw5 1 2 3
Backannotation: i26:sw6 1 2 3
Backannotation: i26:sw7 1 2 3
Backannotation: i26:sw8 1 2 3
Backannotation: i26:sw9 1 2 3
Backannotation: i26:sw10 1 2 3
Backannotation: i26:s11 1 2 3
Backannotation: i26:s12 1 2 3
Backannotation: i26:i10 9 100 11 12 3a
Backannotation: i26:i8 1 2 3
Backannotation: i26:i9 1 2 3
Backannotation: i26:sw11 1 2 3
Backannotation: i26:sw12 1 2 3
Backannotation: i26:sw13 1 2 3
Backannotation: i26:sw14 1 2 3
Backannotation: i26:sw15 1 2 3
Backannotation: i26:sw16 1 2 3
Backannotation: i26:sw17 1 2 3
Backannotation: i26:sw18 1 2 3
Backannotation: i26:sw19 1 2 3
Backannotation: i26:sw20 1 2 3
Backannotation: i26:s21 1 2 3
Backannotation: i26:s22 1 2 3
Backannotation: i26:sw21 1 2 3
Backannotation: i26:sw22 1 2 3
Backannotation: i26:sw23 1 2 3
Backannotation: i26:sw24 1 2 3
Backannotation: i26:sw25 1 2 3
Backannotation: i26:sw26 1 2 3
Backannotation: i26:sw27 1 2 3
Backannotation: i26:sw28 1 2 3
Backannotation: i26:s29 1 2 3
Backannotation: i26:s30 1 2 3
Backannotation: i26:s31 1 2 3
Backannotation: i26:s32 1 2 3
Backannotation: i26:s33 1 2 3
Backannotation: i26:s34 1 2 3
Backannotation: i26:s35 1 2 3
Backannotation: i26:s36 1 2 3
Backannotation: i26:sw29 1 2 3
Backannotation: i26:sw30 1 2 3
Backannotation: i26:sw31 1 2 3
Backannotation: i26:sw32 1 2 3
Backannotation: i26:sw33 1 2 3
Backannotation: i26:sw34 1 2 3
Backannotation: i26:sw35 1 2 3
Backannotation: i26:sw36 1 2 3
Backannotation: i26:sw37 1 2 3
Backannotation: i26:sw38 1 2 3
Backannotation: i26:sw39 1 2 3
Backannotation: i26:sw40 1 2 3
Backannotation: i26:sw41 1 2 3
Backannotation: i26:sw42 1 2 3
Backannotation: i26:sw43 1 2 3
Backannotation: i26:sw44 1 2 3
Backannotation: i26:sw45 1 2 3
Backannotation: i26:sw46 1 2 3
Backannotation: i26:s47 1 2 3
Backannotation: i26:s48 1 2 3
Backannotation: i26:sw47 1 2 3
Backannotation: i26:sw48 1 2 3
Backannotation: i26:sw49 1 2 3
Backannotation: i26:sw50 1 2 3
Backannotation: i26:sw51 1 2 3
Backannotation: i26:sw52 1 2 3
Backannotation: i26:sw53 1 2 3
Backannotation: i26:sw54 1 2 3
Backannotation: i26:s55 1 2 3
Backannotation: i26:s56 1 2 3
Backannotation: i26:s57 1 2 3
Backannotation: i26:s58 1 2 3
Backannotation: i25:sw1 1 2 3
Backannotation: i25:sw2 1 2 3
Backannotation: i25:sw3 1 2 3
Backannotation: i25:sw4 1 2 3
Backannotation: i25:sw5 1 2 3
Backannotation: i25:sw6 1 2 3
Backannotation: i25:sw7 1 2 3
Backannotation: i25:sw8 1 2 3
Backannotation: i25:sw9 1 2 3
Backannotation: i25:sw10 1 2 3
Backannotation: i25:s11 1 2 3
Backannotation: i25:s12 1 2 3
Backannotation: i25:i10 9 100 11 12 3a
Backannotation: i25:i8 1 2 3
Backannotation: i25:i9 1 2 3
Backannotation: i25:sw11 1 2 3
Backannotation: i25:sw12 1 2 3
Backannotation: i25:sw13 1 2 3
Backannotation: i25:sw14 1 2 3
Backannotation: i25:sw15 1 2 3
Backannotation: i25:sw16 1 2 3
Backannotation: i25:sw17 1 2 3
Backannotation: i25:sw18 1 2 3
Backannotation: i25:sw19 1 2 3
Backannotation: i25:sw20 1 2 3
Backannotation: i25:s21 1 2 3
Backannotation: i25:s22 1 2 3
Backannotation: i25:sw21 1 2 3
Backannotation: i25:sw22 1 2 3
Backannotation: i25:sw23 1 2 3
Backannotation: i25:sw24 1 2 3
Backannotation: i25:sw25 1 2 3
Backannotation: i25:sw26 1 2 3
Backannotation: i25:sw27 1 2 3
Backannotation: i25:sw28 1 2 3
Backannotation: i25:s29 1 2 3
Backannotation: i25:s30 1 2 3
Backannotation: i25:s31 1 2 3
Backannotation: i25:s32 1 2 3
Backannotation: i25:s33 1 2 3
Backannotation: i25:s34 1 2 3
Backannotation: i25:s35 1 2 3
Backannotation: i25:s36 1 2 3
Backannotation: i25:sw29 1 2 3
Backannotation: i25:sw30 1 2 3
Backannotation: i25:sw31 1 2 3
Backannotation: i25:sw32 1 2 3
Backannotation: i25:sw33 1 2 3
Backannotation: i25:sw34 1 2 3
Backannotation: i25:sw35 1 2 3
Backannotation: i25:sw36 1 2 3
Backannotation: i25:sw37 1 2 3
Backannotation: i25:sw38 1 2 3
Backannotation: i25:sw39 1 2 3
Backannotation: i25:sw40 1 2 3
Backannotation: i25:sw41 1 2 3
Backannotation: i25:sw42 1 2 3
Backannotation: i25:sw43 1 2 3
Backannotation: i25:sw44 1 2 3
Backannotation: i25:sw45 1 2 3
Backannotation: i25:sw46 1 2 3
Backannotation: i25:s47 1 2 3
Backannotation: i25:s48 1 2 3
Backannotation: i25:sw47 1 2 3
Backannotation: i25:sw48 1 2 3
Backannotation: i25:sw49 1 2 3
Backannotation: i25:sw50 1 2 3
Backannotation: i25:sw51 1 2 3
Backannotation: i25:sw52 1 2 3
Backannotation: i25:sw53 1 2 3
Backannotation: i25:sw54 1 2 3
Backannotation: i25:s55 1 2 3
Backannotation: i25:s56 1 2 3
Backannotation: i25:s57 1 2 3
Backannotation: i25:s58 1 2 3
Backannotation: i24:sw1 1 2 3
Backannotation: i24:sw2 1 2 3
Backannotation: i24:sw3 1 2 3
Backannotation: i24:sw4 1 2 3
Backannotation: i24:sw5 1 2 3
Backannotation: i24:sw6 1 2 3
Backannotation: i24:sw7 1 2 3
Backannotation: i24:sw8 1 2 3
Backannotation: i24:sw9 1 2 3
Backannotation: i24:sw10 1 2 3
Backannotation: i24:s11 1 2 3
Backannotation: i24:s12 1 2 3
Backannotation: i24:i10 9 100 11 12 3a
Backannotation: i24:i8 1 2 3
Backannotation: i24:i9 1 2 3
Backannotation: i24:sw11 1 2 3
Backannotation: i24:sw12 1 2 3
Backannotation: i24:sw13 1 2 3
Backannotation: i24:sw14 1 2 3
Backannotation: i24:sw15 1 2 3
Backannotation: i24:sw16 1 2 3
Backannotation: i24:sw17 1 2 3
Backannotation: i24:sw18 1 2 3
Backannotation: i24:sw19 1 2 3
Backannotation: i24:sw20 1 2 3
Backannotation: i24:s21 1 2 3
Backannotation: i24:s22 1 2 3
Backannotation: i24:sw21 1 2 3
Backannotation: i24:sw22 1 2 3
Backannotation: i24:sw23 1 2 3
Backannotation: i24:sw24 1 2 3
Backannotation: i24:sw25 1 2 3
Backannotation: i24:sw26 1 2 3
Backannotation: i24:sw27 1 2 3
Backannotation: i24:sw28 1 2 3
Backannotation: i24:s29 1 2 3
Backannotation: i24:s30 1 2 3
Backannotation: i24:s31 1 2 3
Backannotation: i24:s32 1 2 3
Backannotation: i24:s33 1 2 3
Backannotation: i24:s34 1 2 3
Backannotation: i24:s35 1 2 3
Backannotation: i24:s36 1 2 3
Backannotation: i24:sw29 1 2 3
Backannotation: i24:sw30 1 2 3
Backannotation: i24:sw31 1 2 3
Backannotation: i24:sw32 1 2 3
Backannotation: i24:sw33 1 2 3
Backannotation: i24:sw34 1 2 3
Backannotation: i24:sw35 1 2 3
Backannotation: i24:sw36 1 2 3
Backannotation: i24:sw37 1 2 3
Backannotation: i24:sw38 1 2 3
Backannotation: i24:sw39 1 2 3
Backannotation: i24:sw40 1 2 3
Backannotation: i24:sw41 1 2 3
Backannotation: i24:sw42 1 2 3
Backannotation: i24:sw43 1 2 3
Backannotation: i24:sw44 1 2 3
Backannotation: i24:sw45 1 2 3
Backannotation: i24:sw46 1 2 3
Backannotation: i24:s47 1 2 3
Backannotation: i24:s48 1 2 3
Backannotation: i24:sw47 1 2 3
Backannotation: i24:sw48 1 2 3
Backannotation: i24:sw49 1 2 3
Backannotation: i24:sw50 1 2 3
Backannotation: i24:sw51 1 2 3
Backannotation: i24:sw52 1 2 3
Backannotation: i24:sw53 1 2 3
Backannotation: i24:sw54 1 2 3
Backannotation: i24:s55 1 2 3
Backannotation: i24:s56 1 2 3
Backannotation: i24:s57 1 2 3
Backannotation: i24:s58 1 2 3
Backannotation: i23:sw1 1 2 3
Backannotation: i23:sw2 1 2 3
Backannotation: i23:sw3 1 2 3
Backannotation: i23:sw4 1 2 3
Backannotation: i23:sw5 1 2 3
Backannotation: i23:sw6 1 2 3
Backannotation: i23:sw7 1 2 3
Backannotation: i23:sw8 1 2 3
Backannotation: i23:sw9 1 2 3
Backannotation: i23:sw10 1 2 3
Backannotation: i23:s11 1 2 3
Backannotation: i23:s12 1 2 3
Backannotation: i23:i10 9 100 11 12 3a
Backannotation: i23:i8 1 2 3
Backannotation: i23:i9 1 2 3
Backannotation: i23:sw11 1 2 3
Backannotation: i23:sw12 1 2 3
Backannotation: i23:sw13 1 2 3
Backannotation: i23:sw14 1 2 3
Backannotation: i23:sw15 1 2 3
Backannotation: i23:sw16 1 2 3
Backannotation: i23:sw17 1 2 3
Backannotation: i23:sw18 1 2 3
Backannotation: i23:sw19 1 2 3
Backannotation: i23:sw20 1 2 3
Backannotation: i23:s21 1 2 3
Backannotation: i23:s22 1 2 3
Backannotation: i23:sw21 1 2 3
Backannotation: i23:sw22 1 2 3
Backannotation: i23:sw23 1 2 3
Backannotation: i23:sw24 1 2 3
Backannotation: i23:sw25 1 2 3
Backannotation: i23:sw26 1 2 3
Backannotation: i23:sw27 1 2 3
Backannotation: i23:sw28 1 2 3
Backannotation: i23:s29 1 2 3
Backannotation: i23:s30 1 2 3
Backannotation: i23:s31 1 2 3
Backannotation: i23:s32 1 2 3
Backannotation: i23:s33 1 2 3
Backannotation: i23:s34 1 2 3
Backannotation: i23:s35 1 2 3
Backannotation: i23:s36 1 2 3
Backannotation: i23:sw29 1 2 3
Backannotation: i23:sw30 1 2 3
Backannotation: i23:sw31 1 2 3
Backannotation: i23:sw32 1 2 3
Backannotation: i23:sw33 1 2 3
Backannotation: i23:sw34 1 2 3
Backannotation: i23:sw35 1 2 3
Backannotation: i23:sw36 1 2 3
Backannotation: i23:sw37 1 2 3
Backannotation: i23:sw38 1 2 3
Backannotation: i23:sw39 1 2 3
Backannotation: i23:sw40 1 2 3
Backannotation: i23:sw41 1 2 3
Backannotation: i23:sw42 1 2 3
Backannotation: i23:sw43 1 2 3
Backannotation: i23:sw44 1 2 3
Backannotation: i23:sw45 1 2 3
Backannotation: i23:sw46 1 2 3
Backannotation: i23:s47 1 2 3
Backannotation: i23:s48 1 2 3
Backannotation: i23:sw47 1 2 3
Backannotation: i23:sw48 1 2 3
Backannotation: i23:sw49 1 2 3
Backannotation: i23:sw50 1 2 3
Backannotation: i23:sw51 1 2 3
Backannotation: i23:sw52 1 2 3
Backannotation: i23:sw53 1 2 3
Backannotation: i23:sw54 1 2 3
Backannotation: i23:s55 1 2 3
Backannotation: i23:s56 1 2 3
Backannotation: i23:s57 1 2 3
Backannotation: i23:s58 1 2 3
Backannotation: i26:i10:i25 1 2 3
Backannotation: i26:i10:i27 1 2 3
Backannotation: i26:i10:i26 1 2 3
Backannotation: i26:i10:i24 1 2 3
Backannotation: i26:i10:i23 1 2 3
Backannotation: i26:i10:i22 1 2 3
Backannotation: i25:i10:i25 1 2 3
Backannotation: i25:i10:i27 1 2 3
Backannotation: i25:i10:i26 1 2 3
Backannotation: i25:i10:i24 1 2 3
Backannotation: i25:i10:i23 1 2 3
Backannotation: i25:i10:i22 1 2 3
Backannotation: i24:i10:i25 1 2 3
Backannotation: i24:i10:i27 1 2 3
Backannotation: i24:i10:i26 1 2 3
Backannotation: i24:i10:i24 1 2 3
Backannotation: i24:i10:i23 1 2 3
Backannotation: i24:i10:i22 1 2 3
Backannotation: i23:i10:i25 1 2 3
Backannotation: i23:i10:i27 1 2 3
Backannotation: i23:i10:i26 1 2 3
Backannotation: i23:i10:i24 1 2 3
Backannotation: i23:i10:i23 1 2 3
Backannotation: i23:i10:i22 1 2 3
Backannotation: i26 1 2 11 12 25 100 9
Backannotation: i25 1 2 11 12 25 100 9
Backannotation: i24 1 2 11 12 25 100 9
Backannotation: i23 1 2 11 12 25 100 9
Backannotation: s2 1 2 3
Backannotation: s1 1 2 3
Backannotation: i26:sw1 1 2 3
Backannotation: i26:sw2 1 2 3
Backannotation: i26:sw3 1 2 3
Backannotation: i26:sw4 1 2 3
Backannotation: i26:sw5 1 2 3
Backannotation: i26:sw6 1 2 3
Backannotation: i26:sw7 1 2 3
Backannotation: i26:sw8 1 2 3
Backannotation: i26:sw9 1 2 3
Backannotation: i26:sw10 1 2 3
Backannotation: i26:s11 1 2 3
Backannotation: i26:s12 1 2 3
Backannotation: i26:i10 9 100 11 12 3a
Backannotation: i26:i8 1 2 3
Backannotation: i26:i9 1 2 3
Backannotation: i26:sw11 1 2 3
Backannotation: i26:sw12 1 2 3
Backannotation: i26:sw13 1 2 3
Backannotation: i26:sw14 1 2 3
Backannotation: i26:sw15 1 2 3
Backannotation: i26:sw16 1 2 3
Backannotation: i26:sw17 1 2 3
Backannotation: i26:sw18 1 2 3
Backannotation: i26:sw19 1 2 3
Backannotation: i26:sw20 1 2 3
Backannotation: i26:s21 1 2 3
Backannotation: i26:s22 1 2 3
Backannotation: i26:sw21 1 2 3
Backannotation: i26:sw22 1 2 3
Backannotation: i26:sw23 1 2 3
Backannotation: i26:sw24 1 2 3
Backannotation: i26:sw25 1 2 3
Backannotation: i26:sw26 1 2 3
Backannotation: i26:sw27 1 2 3
Backannotation: i26:sw28 1 2 3
Backannotation: i26:s29 1 2 3
Backannotation: i26:s30 1 2 3
Backannotation: i26:s31 1 2 3
Backannotation: i26:s32 1 2 3
Backannotation: i26:s33 1 2 3
Backannotation: i26:s34 1 2 3
Backannotation: i26:s35 1 2 3
Backannotation: i26:s36 1 2 3
Backannotation: i26:sw29 1 2 3
Backannotation: i26:sw30 1 2 3
Backannotation: i26:sw31 1 2 3
Backannotation: i26:sw32 1 2 3
Backannotation: i26:sw33 1 2 3
Backannotation: i26:sw34 1 2 3
Backannotation: i26:sw35 1 2 3
Backannotation: i26:sw36 1 2 3
Backannotation: i26:sw37 1 2 3
Backannotation: i26:sw38 1 2 3
Backannotation: i26:sw39 1 2 3
Backannotation: i26:sw40 1 2 3
Backannotation: i26:sw41 1 2 3
Backannotation: i26:sw42 1 2 3
Backannotation: i26:sw43 1 2 3
Backannotation: i26:sw44 1 2 3
Backannotation: i26:sw45 1 2 3
Backannotation: i26:sw46 1 2 3
Backannotation: i26:s47 1 2 3
Backannotation: i26:s48 1 2 3
Backannotation: i26:sw47 1 2 3
Backannotation: i26:sw48 1 2 3
Backannotation: i26:sw49 1 2 3
Backannotation: i26:sw50 1 2 3
Backannotation: i26:sw51 1 2 3
Backannotation: i26:sw52 1 2 3
Backannotation: i26:sw53 1 2 3
Backannotation: i26:sw54 1 2 3
Backannotation: i26:s55 1 2 3
Backannotation: i26:s56 1 2 3
Backannotation: i26:s57 1 2 3
Backannotation: i26:s58 1 2 3
Backannotation: i25:sw1 1 2 3
Backannotation: i25:sw2 1 2 3
Backannotation: i25:sw3 1 2 3
Backannotation: i25:sw4 1 2 3
Backannotation: i25:sw5 1 2 3
Backannotation: i25:sw6 1 2 3
Backannotation: i25:sw7 1 2 3
Backannotation: i25:sw8 1 2 3
Backannotation: i25:sw9 1 2 3
Backannotation: i25:sw10 1 2 3
Backannotation: i25:s11 1 2 3
Backannotation: i25:s12 1 2 3
Backannotation: i25:i10 9 100 11 12 3a
Backannotation: i25:i8 1 2 3
Backannotation: i25:i9 1 2 3
Backannotation: i25:sw11 1 2 3
Backannotation: i25:sw12 1 2 3
Backannotation: i25:sw13 1 2 3
Backannotation: i25:sw14 1 2 3
Backannotation: i25:sw15 1 2 3
Backannotation: i25:sw16 1 2 3
Backannotation: i25:sw17 1 2 3
Backannotation: i25:sw18 1 2 3
Backannotation: i25:sw19 1 2 3
Backannotation: i25:sw20 1 2 3
Backannotation: i25:s21 1 2 3
Backannotation: i25:s22 1 2 3
Backannotation: i25:sw21 1 2 3
Backannotation: i25:sw22 1 2 3
Backannotation: i25:sw23 1 2 3
Backannotation: i25:sw24 1 2 3
Backannotation: i25:sw25 1 2 3
Backannotation: i25:sw26 1 2 3
Backannotation: i25:sw27 1 2 3
Backannotation: i25:sw28 1 2 3
Backannotation: i25:s29 1 2 3
Backannotation: i25:s30 1 2 3
Backannotation: i25:s31 1 2 3
Backannotation: i25:s32 1 2 3
Backannotation: i25:s33 1 2 3
Backannotation: i25:s34 1 2 3
Backannotation: i25:s35 1 2 3
Backannotation: i25:s36 1 2 3
Backannotation: i25:sw29 1 2 3
Backannotation: i25:sw30 1 2 3
Backannotation: i25:sw31 1 2 3
Backannotation: i25:sw32 1 2 3
Backannotation: i25:sw33 1 2 3
Backannotation: i25:sw34 1 2 3
Backannotation: i25:sw35 1 2 3
Backannotation: i25:sw36 1 2 3
Backannotation: i25:sw37 1 2 3
Backannotation: i25:sw38 1 2 3
Backannotation: i25:sw39 1 2 3
Backannotation: i25:sw40 1 2 3
Backannotation: i25:sw41 1 2 3
Backannotation: i25:sw42 1 2 3
Backannotation: i25:sw43 1 2 3
Backannotation: i25:sw44 1 2 3
Backannotation: i25:sw45 1 2 3
Backannotation: i25:sw46 1 2 3
Backannotation: i25:s47 1 2 3
Backannotation: i25:s48 1 2 3
Backannotation: i25:sw47 1 2 3
Backannotation: i25:sw48 1 2 3
Backannotation: i25:sw49 1 2 3
Backannotation: i25:sw50 1 2 3
Backannotation: i25:sw51 1 2 3
Backannotation: i25:sw52 1 2 3
Backannotation: i25:sw53 1 2 3
Backannotation: i25:sw54 1 2 3
Backannotation: i25:s55 1 2 3
Backannotation: i25:s56 1 2 3
Backannotation: i25:s57 1 2 3
Backannotation: i25:s58 1 2 3
Backannotation: i24:sw1 1 2 3
Backannotation: i24:sw2 1 2 3
Backannotation: i24:sw3 1 2 3
Backannotation: i24:sw4 1 2 3
Backannotation: i24:sw5 1 2 3
Backannotation: i24:sw6 1 2 3
Backannotation: i24:sw7 1 2 3
Backannotation: i24:sw8 1 2 3
Backannotation: i24:sw9 1 2 3
Backannotation: i24:sw10 1 2 3
Backannotation: i24:s11 1 2 3
Backannotation: i24:s12 1 2 3
Backannotation: i24:i10 9 100 11 12 3a
Backannotation: i24:i8 1 2 3
Backannotation: i24:i9 1 2 3
Backannotation: i24:sw11 1 2 3
Backannotation: i24:sw12 1 2 3
Backannotation: i24:sw13 1 2 3
Backannotation: i24:sw14 1 2 3
Backannotation: i24:sw15 1 2 3
Backannotation: i24:sw16 1 2 3
Backannotation: i24:sw17 1 2 3
Backannotation: i24:sw18 1 2 3
Backannotation: i24:sw19 1 2 3
Backannotation: i24:sw20 1 2 3
Backannotation: i24:s21 1 2 3
Backannotation: i24:s22 1 2 3
Backannotation: i24:sw21 1 2 3
Backannotation: i24:sw22 1 2 3
Backannotation: i24:sw23 1 2 3
Backannotation: i24:sw24 1 2 3
Backannotation: i24:sw25 1 2 3
Backannotation: i24:sw26 1 2 3
Backannotation: i24:sw27 1 2 3
Backannotation: i24:sw28 1 2 3
Backannotation: i24:s29 1 2 3
Backannotation: i24:s30 1 2 3
Backannotation: i24:s31 1 2 3
Backannotation: i24:s32 1 2 3
Backannotation: i24:s33 1 2 3
Backannotation: i24:s34 1 2 3
Backannotation: i24:s35 1 2 3
Backannotation: i24:s36 1 2 3
Backannotation: i24:sw29 1 2 3
Backannotation: i24:sw30 1 2 3
Backannotation: i24:sw31 1 2 3
Backannotation: i24:sw32 1 2 3
Backannotation: i24:sw33 1 2 3
Backannotation: i24:sw34 1 2 3
Backannotation: i24:sw35 1 2 3
Backannotation: i24:sw36 1 2 3
Backannotation: i24:sw37 1 2 3
Backannotation: i24:sw38 1 2 3
Backannotation: i24:sw39 1 2 3
Backannotation: i24:sw40 1 2 3
Backannotation: i24:sw41 1 2 3
Backannotation: i24:sw42 1 2 3
Backannotation: i24:sw43 1 2 3
Backannotation: i24:sw44 1 2 3
Backannotation: i24:sw45 1 2 3
Backannotation: i24:sw46 1 2 3
Backannotation: i24:s47 1 2 3
Backannotation: i24:s48 1 2 3
Backannotation: i24:sw47 1 2 3
Backannotation: i24:sw48 1 2 3
Backannotation: i24:sw49 1 2 3
Backannotation: i24:sw50 1 2 3
Backannotation: i24:sw51 1 2 3
Backannotation: i24:sw52 1 2 3
Backannotation: i24:sw53 1 2 3
Backannotation: i24:sw54 1 2 3
Backannotation: i24:s55 1 2 3
Backannotation: i24:s56 1 2 3
Backannotation: i24:s57 1 2 3
Backannotation: i24:s58 1 2 3
Backannotation: i23:sw1 1 2 3
Backannotation: i23:sw2 1 2 3
Backannotation: i23:sw3 1 2 3
Backannotation: i23:sw4 1 2 3
Backannotation: i23:sw5 1 2 3
Backannotation: i23:sw6 1 2 3
Backannotation: i23:sw7 1 2 3
Backannotation: i23:sw8 1 2 3
Backannotation: i23:sw9 1 2 3
Backannotation: i23:sw10 1 2 3
Backannotation: i23:s11 1 2 3
Backannotation: i23:s12 1 2 3
Backannotation: i23:i10 9 100 11 12 3a
Backannotation: i23:i8 1 2 3
Backannotation: i23:i9 1 2 3
Backannotation: i23:sw11 1 2 3
Backannotation: i23:sw12 1 2 3
Backannotation: i23:sw13 1 2 3
Backannotation: i23:sw14 1 2 3
Backannotation: i23:sw15 1 2 3
Backannotation: i23:sw16 1 2 3
Backannotation: i23:sw17 1 2 3
Backannotation: i23:sw18 1 2 3
Backannotation: i23:sw19 1 2 3
Backannotation: i23:sw20 1 2 3
Backannotation: i23:s21 1 2 3
Backannotation: i23:s22 1 2 3
Backannotation: i23:sw21 1 2 3
Backannotation: i23:sw22 1 2 3
Backannotation: i23:sw23 1 2 3
Backannotation: i23:sw24 1 2 3
Backannotation: i23:sw25 1 2 3
Backannotation: i23:sw26 1 2 3
Backannotation: i23:sw27 1 2 3
Backannotation: i23:sw28 1 2 3
Backannotation: i23:s29 1 2 3
Backannotation: i23:s30 1 2 3
Backannotation: i23:s31 1 2 3
Backannotation: i23:s32 1 2 3
Backannotation: i23:s33 1 2 3
Backannotation: i23:s34 1 2 3
Backannotation: i23:s35 1 2 3
Backannotation: i23:s36 1 2 3
Backannotation: i23:sw29 1 2 3
Backannotation: i23:sw30 1 2 3
Backannotation: i23:sw31 1 2 3
Backannotation: i23:sw32 1 2 3
Backannotation: i23:sw33 1 2 3
Backannotation: i23:sw34 1 2 3
Backannotation: i23:sw35 1 2 3
Backannotation: i23:sw36 1 2 3
Backannotation: i23:sw37 1 2 3
Backannotation: i23:sw38 1 2 3
Backannotation: i23:sw39 1 2 3
Backannotation: i23:sw40 1 2 3
Backannotation: i23:sw41 1 2 3
Backannotation: i23:sw42 1 2 3
Backannotation: i23:sw43 1 2 3
Backannotation: i23:sw44 1 2 3
Backannotation: i23:sw45 1 2 3
Backannotation: i23:sw46 1 2 3
Backannotation: i23:s47 1 2 3
Backannotation: i23:s48 1 2 3
Backannotation: i23:sw47 1 2 3
Backannotation: i23:sw48 1 2 3
Backannotation: i23:sw49 1 2 3
Backannotation: i23:sw50 1 2 3
Backannotation: i23:sw51 1 2 3
Backannotation: i23:sw52 1 2 3
Backannotation: i23:sw53 1 2 3
Backannotation: i23:sw54 1 2 3
Backannotation: i23:s55 1 2 3
Backannotation: i23:s56 1 2 3
Backannotation: i23:s57 1 2 3
Backannotation: i23:s58 1 2 3
Backannotation: i26:i10:i25 1 2 3
Backannotation: i26:i10:i27 1 2 3
Backannotation: i26:i10:i26 1 2 3
Backannotation: i26:i10:i24 1 2 3
Backannotation: i26:i10:i23 1 2 3
Backannotation: i26:i10:i22 1 2 3
Backannotation: i25:i10:i25 1 2 3
Backannotation: i25:i10:i27 1 2 3
Backannotation: i25:i10:i26 1 2 3
Backannotation: i25:i10:i24 1 2 3
Backannotation: i25:i10:i23 1 2 3
Backannotation: i25:i10:i22 1 2 3
Backannotation: i24:i10:i25 1 2 3
Backannotation: i24:i10:i27 1 2 3
Backannotation: i24:i10:i26 1 2 3
Backannotation: i24:i10:i24 1 2 3
Backannotation: i24:i10:i23 1 2 3
Backannotation: i24:i10:i22 1 2 3
Backannotation: i23:i10:i25 1 2 3
Backannotation: i23:i10:i27 1 2 3
Backannotation: i23:i10:i26 1 2 3
Backannotation: i23:i10:i24 1 2 3
Backannotation: i23:i10:i23 1 2 3
Backannotation: i23:i10:i22 1 2 3
Backannotation: u7 1 2 3
Backannotation: u9 1 2 3
Backannotation: u8 1 2 3
Backannotation: u1 1 2 3 4 5 6 7 8
Backannotation: u14 1 2 3
Backannotation: u15 1 2 3
Backannotation: x1 vcc vss gnd msg x3 in out test
Backannotation: x2 vcc vss gnd msg x3 in out test
Backannotation: u2 1 2 3 4 5 6 7 8
Backannotation: x3 vcc vss gnd msg x3 in out test
Backannotation: u3 1 2 3 4 5
Backannotation: u4 1 2 3 4 5
Backannotation: u5 1 2 3 4 5
Backannotation: u6 1 2 3 4 5
Backannotation: u7 1 2 3 4 5
Backannotation: u8 1 2 3 4 5
Backannotation: u9 1 2 3 4 5
Backannotation: u10 1 2 3 4 5
Backannotation: x1:u1 1 2 3 4 5 6 7 8
Backannotation: x1:u2 11 4 2 10 7
Backannotation: x2:u1 1 2 3 4 5 6 7 8
Backannotation: x2:u2 11 4 2 10 7
Backannotation: x3:u1 1 2 3 4 5 6 7 8
Backannotation: x3:u2 11 4 2 10 7
Variables:
	0	time	time
	1	V(n004)	voltage
	2	V(n005)	voltage
	3	V(x1)	voltage
	4	V(+15v)	voltage
	5	V(-15v)	voltage
	6	V(x3)	voltage
	7	V(n015)	voltage
	8	V(m)	voltage
	9	V(n007)	voltage
	10	V(n010)	voltage
	11	V(n006)	voltage
	12	V(nc_01)	voltage
	13	V(nc_02)	voltage
	14	V(mr)	voltage
	15	V(n008)	voltage
	16	V(n014)	voltage
	17	V(nc_03)	voltage
	18	V(n009)	voltage
	19	V(n002)	voltage
	20	V(nc_04)	voltage
	21	V(n016)	voltage
	22	V(n012)	voltage
	23	V(n001)	voltage
	24	V(-x2)	voltage
	25	V(n003)	voltage
	26	V(n013)	voltage
	27	V(n011)	voltage
	28	V(n022)	voltage
	29	V(n018)	voltage
	30	V(n017)	voltage
	31	V(nc_05)	voltage
	32	V(p001)	voltage
	33	V(n020)	voltage
	34	V(n021)	voltage
	35	V(n019)	voltage
	36	I(C2)	device_current
	37	I(C4)	device_current
	38	I(C1)	device_current
	39	I(R17)	device_current
	40	I(R7)	device_current
	41	I(R3)	device_current
	42	I(R6)	device_current
	43	I(R5)	device_current
	44	I(R4)	device_current
	45	I(R16)	device_current
	46	I(R15)	device_current
	47	I(R14)	device_current
	48	I(R13)	device_current
	49	I(R12)	device_current
	50	I(R11)	device_current
	51	I(R10)	device_current
	52	I(R9)	device_current
	53	I(R8)	device_current
	54	I(R2)	device_current
	55	I(R29)	device_current
	56	I(R28)	device_current
	57	I(R27)	device_current
	58	I(R26)	device_current
	59	I(R25)	device_current
	60	I(R24)	device_current
	61	I(R23)	device_current
	62	I(R22)	device_current
	63	I(R1)	device_current
	64	I(V3)	device_current
	65	I(V2)	device_current
	66	I(V1)	device_current
	67	Ix(u1:1)	subckt_current
	68	Ix(u1:2)	subckt_current
	69	Ix(u1:3)	subckt_current
	70	Ix(u1:4)	subckt_current
	71	Ix(u1:5)	subckt_current
	72	Ix(u1:6)	subckt_current
	73	Ix(u1:7)	subckt_current
	74	Ix(u1:8)	subckt_current
	75	Ix(u2:1)	subckt_current
	76	Ix(u2:2)	subckt_current
	77	Ix(u2:3)	subckt_current
	78	Ix(u2:4)	subckt_current
	79	Ix(u2:5)	subckt_current
	80	Ix(u2:6)	subckt_current
	81	Ix(u2:7)	subckt_current
	82	Ix(u2:8)	subckt_current
	83	Ix(u14:3)	subckt_current